Program Version,EnergyPlus, Version 23.1.0-87ed9199d4, YMD=2026.05.09 11:13
1,5,Environment Title[],Latitude[deg],Longitude[deg],Time Zone[],Elevation[m]
2,8,Day of Simulation[],Month[],Day of Month[],DST Indicator[1=yes 0=no],Hour[],StartMinute[],EndMinute[],DayType
3,5,Cumulative Day of Simulation[],Month[],Day of Month[],DST Indicator[1=yes 0=no],DayType  ! When Daily Meters Requested
4,2,Cumulative Days of Simulation[],Month[]  ! When Monthly Meters Requested
5,1,Cumulative Days of Simulation[] ! When Run Period Meters Requested
6,1,Calendar Year of Simulation[] ! When Annual Meters Requested
9029,1,DistrictHeating:Facility [J] !TimeStep
9078,1,DistrictCooling:Facility [J] !TimeStep
14,1,Electricity:Facility [J] !TimeStep
16,7,Electricity:Facility [J] !Daily [Value,Min,Hour,Minute,Max,Hour,Minute]
End of Data Dictionary
1,RUN PERIOD 1,  39.80, 116.47,   8.00,  32.00
2,1, 7, 1, 0, 1, 0.00,10.00,Saturday
14,21544112.041193422
9029,0.0
9078,0.0
2,1, 7, 1, 0, 1,10.00,20.00,Saturday
14,21544112.041193422
9029,0.0
9078,0.0
2,1, 7, 1, 0, 1,20.00,30.00,Saturday
14,21544112.041193422
9029,0.0
9078,0.0
2,1, 7, 1, 0, 1,30.00,40.00,Saturday
14,21544112.041193422
9029,0.0
9078,1025840.5880084331
2,1, 7, 1, 0, 1,40.00,50.00,Saturday
14,21544112.041193422
9029,0.0
9078,8726658.592356035
2,1, 7, 1, 0, 1,50.00,60.00,Saturday
14,21544112.041193422
9029,0.0
9078,0.0
2,1, 7, 1, 0, 2, 0.00,10.00,Saturday
14,21544112.041193422
9029,0.0
9078,1960090.3553637944
2,1, 7, 1, 0, 2,10.00,20.00,Saturday
14,21544112.041193422
9029,0.0
9078,441796.8445729446
2,1, 7, 1, 0, 2,20.00,30.00,Saturday
14,21544112.041193422
9029,0.0
9078,2247.7785912395034
2,1, 7, 1, 0, 2,30.00,40.00,Saturday
14,21544112.041193422
9029,0.0
9078,0.0
2,1, 7, 1, 0, 2,40.00,50.00,Saturday
14,21544112.041193422
9029,0.0
9078,0.0
2,1, 7, 1, 0, 2,50.00,60.00,Saturday
14,21544112.041193422
9029,30997.163160640794
9078,0.0
2,1, 7, 1, 0, 3, 0.00,10.00,Saturday
14,21544112.041193422
9029,247111.68495454337
9078,0.0
2,1, 7, 1, 0, 3,10.00,20.00,Saturday
14,21544112.041193422
9029,93643.36106662959
9078,0.0
2,1, 7, 1, 0, 3,20.00,30.00,Saturday
14,21544112.041193422
9029,25455.835215985266
9078,0.0
2,1, 7, 1, 0, 3,30.00,40.00,Saturday
14,21544112.041193422
9029,412427.0706622688
9078,0.0
2,1, 7, 1, 0, 3,40.00,50.00,Saturday
14,21544112.041193422
9029,2129100.4996745517
9078,0.0
2,1, 7, 1, 0, 3,50.00,60.00,Saturday
14,21544112.041193422
9029,2515056.757067845
9078,0.0
2,1, 7, 1, 0, 4, 0.00,10.00,Saturday
14,21544112.041193422
9029,640050.6636988408
9078,0.0
2,1, 7, 1, 0, 4,10.00,20.00,Saturday
14,21544112.041193422
9029,5240540.6346615115
9078,0.0
2,1, 7, 1, 0, 4,20.00,30.00,Saturday
14,21544112.041193422
9029,676550.949693829
9078,0.0
2,1, 7, 1, 0, 4,30.00,40.00,Saturday
14,21544112.041193422
9029,1562702.82912935
9078,0.0
2,1, 7, 1, 0, 4,40.00,50.00,Saturday
14,21544112.041193422
9029,10445170.593057431
9078,0.0
2,1, 7, 1, 0, 4,50.00,60.00,Saturday
14,21544112.041193422
9029,3257836.491784449
9078,0.0
2,1, 7, 1, 0, 5, 0.00,10.00,Saturday
14,21544112.041193422
9029,1682157.6392209842
9078,0.0
2,1, 7, 1, 0, 5,10.00,20.00,Saturday
14,21544112.041193422
9029,2470625.855942768
9078,0.0
2,1, 7, 1, 0, 5,20.00,30.00,Saturday
14,21544112.041193422
9029,9582393.9330739
9078,0.0
2,1, 7, 1, 0, 5,30.00,40.00,Saturday
14,21544112.041193422
9029,2427110.839532287
9078,0.0
2,1, 7, 1, 0, 5,40.00,50.00,Saturday
14,21544112.041193422
9029,7831044.762490328
9078,0.0
2,1, 7, 1, 0, 5,50.00,60.00,Saturday
14,21544112.041193422
9029,961488.9415614858
9078,0.0
2,1, 7, 1, 0, 6, 0.00,10.00,Saturday
14,21544112.041193422
9029,5617916.478186949
9078,0.0
2,1, 7, 1, 0, 6,10.00,20.00,Saturday
14,21544112.041193422
9029,2805353.834692221
9078,0.0
2,1, 7, 1, 0, 6,20.00,30.00,Saturday
14,21544112.041193422
9029,3326171.4398894915
9078,0.0
2,1, 7, 1, 0, 6,30.00,40.00,Saturday
14,21544112.041193422
9029,11477104.5865802
9078,0.0
2,1, 7, 1, 0, 6,40.00,50.00,Saturday
14,21544112.041193422
9029,19222360.082488853
9078,0.0
2,1, 7, 1, 0, 6,50.00,60.00,Saturday
14,21544112.041193422
9029,6322615.7573417155
9078,0.0
2,1, 7, 1, 0, 7, 0.00,10.00,Saturday
14,31472169.500459474
9029,2440062.281093062
9078,0.0
2,1, 7, 1, 0, 7,10.00,20.00,Saturday
14,31472169.500459474
9029,8731323.7952295
9078,0.0
2,1, 7, 1, 0, 7,20.00,30.00,Saturday
14,31472169.500459474
9029,3613961.028811411
9078,0.0
2,1, 7, 1, 0, 7,30.00,40.00,Saturday
14,31472169.500459474
9029,2465130.9736950668
9078,0.0
2,1, 7, 1, 0, 7,40.00,50.00,Saturday
14,31472169.500459474
9029,1199796.9432995778
9078,0.0
2,1, 7, 1, 0, 7,50.00,60.00,Saturday
14,31472169.500459474
9029,677492.3335331923
9078,0.0
2,1, 7, 1, 0, 8, 0.00,10.00,Saturday
14,32320914.182110824
9029,2454172.622512275
9078,0.0
2,1, 7, 1, 0, 8,10.00,20.00,Saturday
14,32320914.182110824
9029,5975998.853067687
9078,0.0
2,1, 7, 1, 0, 8,20.00,30.00,Saturday
14,32320914.182110824
9029,386278.6244623704
9078,0.0
2,1, 7, 1, 0, 8,30.00,40.00,Saturday
14,32320914.182110824
9029,9650255.108729541
9078,290160.2762464558
2,1, 7, 1, 0, 8,40.00,50.00,Saturday
14,32320914.182110824
9029,246833.1093963526
9078,1965916.2388980475
2,1, 7, 1, 0, 8,50.00,60.00,Saturday
14,32320914.182110824
9029,763313.6024735173
9078,3676006.2841731627
2,1, 7, 1, 0, 9, 0.00,10.00,Saturday
14,76175721.48907796
9029,781735.2756103264
9078,13776508.217882998
2,1, 7, 1, 0, 9,10.00,20.00,Saturday
14,76175721.48907796
9029,0.0
9078,55352257.92985552
2,1, 7, 1, 0, 9,20.00,30.00,Saturday
14,76175721.48907796
9029,209020.33456747883
9078,52146543.56114984
2,1, 7, 1, 0, 9,30.00,40.00,Saturday
14,76175721.48907796
9029,0.0
9078,115461796.0748632
2,1, 7, 1, 0, 9,40.00,50.00,Saturday
14,76175721.48907796
9029,9704.69244754349
9078,147077532.7527663
2,1, 7, 1, 0, 9,50.00,60.00,Saturday
14,76175721.48907796
9029,0.0
9078,241463105.722974
2,1, 7, 1, 0,10, 0.00,10.00,Saturday
14,80093004.6351611
9029,0.0
9078,169051421.9674289
2,1, 7, 1, 0,10,10.00,20.00,Saturday
14,80093004.6351611
9029,0.0
9078,275545996.44417495
2,1, 7, 1, 0,10,20.00,30.00,Saturday
14,80093004.6351611
9029,0.0
9078,166749748.0490494
2,1, 7, 1, 0,10,30.00,40.00,Saturday
14,80093004.6351611
9029,684274.2191302591
9078,458285097.16360074
2,1, 7, 1, 0,10,40.00,50.00,Saturday
14,80093004.6351611
9029,0.0
9078,179227504.4250611
2,1, 7, 1, 0,10,50.00,60.00,Saturday
14,80093004.6351611
9029,0.0
9078,183095850.47557625
2,1, 7, 1, 0,11, 0.00,10.00,Saturday
14,83618559.46663596
9029,0.0
9078,139230829.5752576
2,1, 7, 1, 0,11,10.00,20.00,Saturday
14,83618559.46663596
9029,0.0
9078,181141804.44620064
2,1, 7, 1, 0,11,20.00,30.00,Saturday
14,83618559.46663596
9029,0.0
9078,241849625.7345114
2,1, 7, 1, 0,11,30.00,40.00,Saturday
14,83618559.46663596
9029,0.0
9078,146159840.56610247
2,1, 7, 1, 0,11,40.00,50.00,Saturday
14,83618559.46663596
9029,0.0
9078,100880033.87213162
2,1, 7, 1, 0,11,50.00,60.00,Saturday
14,83618559.46663596
9029,0.0
9078,90698970.579113
2,1, 7, 1, 0,12, 0.00,10.00,Saturday
14,83618559.46663596
9029,0.0
9078,149197405.18837675
2,1, 7, 1, 0,12,10.00,20.00,Saturday
14,83618559.46663596
9029,0.0
9078,105520260.09390366
2,1, 7, 1, 0,12,20.00,30.00,Saturday
14,83618559.46663596
9029,0.0
9078,178203549.98586977
2,1, 7, 1, 0,12,30.00,40.00,Saturday
14,83618559.46663596
9029,0.0
9078,201679112.05473703
2,1, 7, 1, 0,12,40.00,50.00,Saturday
14,83618559.46663596
9029,0.0
9078,131799629.22872786
2,1, 7, 1, 0,12,50.00,60.00,Saturday
14,83618559.46663596
9029,0.0
9078,186655128.81891143
2,1, 7, 1, 0,13, 0.00,10.00,Saturday
14,82833875.59512806
9029,380777.99617246096
9078,167922233.22112483
2,1, 7, 1, 0,13,10.00,20.00,Saturday
14,82833875.59512806
9029,0.0
9078,232416082.43539655
2,1, 7, 1, 0,13,20.00,30.00,Saturday
14,82833875.59512806
9029,0.0
9078,247464602.84047192
2,1, 7, 1, 0,13,30.00,40.00,Saturday
14,82833875.59512806
9029,0.0
9078,208390934.2250801
2,1, 7, 1, 0,13,40.00,50.00,Saturday
14,82833875.59512806
9029,0.0
9078,169182763.73849696
2,1, 7, 1, 0,13,50.00,60.00,Saturday
14,82833875.59512806
9029,0.0
9078,305312181.8839206
2,1, 7, 1, 0,14, 0.00,10.00,Saturday
14,82833875.59512806
9029,0.0
9078,205717631.6526212
2,1, 7, 1, 0,14,10.00,20.00,Saturday
14,82833875.59512806
9029,1575311.7478647921
9078,186768695.94903472
2,1, 7, 1, 0,14,20.00,30.00,Saturday
14,82833875.59512806
9029,0.0
9078,165494767.0511708
2,1, 7, 1, 0,14,30.00,40.00,Saturday
14,82833875.59512806
9029,0.0
9078,142606542.17251226
2,1, 7, 1, 0,14,40.00,50.00,Saturday
14,82833875.59512806
9029,0.0
9078,266366844.27552852
2,1, 7, 1, 0,14,50.00,60.00,Saturday
14,82833875.59512806
9029,0.0
9078,200021517.96548468
2,1, 7, 1, 0,15, 0.00,10.00,Saturday
14,44227849.29111661
9029,0.0
9078,235704038.74250814
2,1, 7, 1, 0,15,10.00,20.00,Saturday
14,44227849.29111661
9029,0.0
9078,217729425.96387768
2,1, 7, 1, 0,15,20.00,30.00,Saturday
14,44227849.29111661
9029,0.0
9078,185749452.67268717
2,1, 7, 1, 0,15,30.00,40.00,Saturday
14,44227849.29111661
9029,0.0
9078,206092510.08092123
2,1, 7, 1, 0,15,40.00,50.00,Saturday
14,44227849.29111661
9029,0.0
9078,171972493.58061948
2,1, 7, 1, 0,15,50.00,60.00,Saturday
14,44227849.29111661
9029,0.0
9078,147706496.6148892
2,1, 7, 1, 0,16, 0.00,10.00,Saturday
14,44227849.29111661
9029,0.0
9078,227574275.4864723
2,1, 7, 1, 0,16,10.00,20.00,Saturday
14,44227849.29111661
9029,0.0
9078,257104052.03566542
2,1, 7, 1, 0,16,20.00,30.00,Saturday
14,44227849.29111661
9029,0.0
9078,287675480.5136843
2,1, 7, 1, 0,16,30.00,40.00,Saturday
14,44227849.29111661
9029,0.0
9078,204021760.1588116
2,1, 7, 1, 0,16,40.00,50.00,Saturday
14,44227849.29111661
9029,222445.48287240788
9078,188017766.4709062
2,1, 7, 1, 0,16,50.00,60.00,Saturday
14,44227849.29111661
9029,0.0
9078,255021644.15598264
2,1, 7, 1, 0,17, 0.00,10.00,Saturday
14,44227849.29111661
9029,0.0
9078,233753330.45512897
2,1, 7, 1, 0,17,10.00,20.00,Saturday
14,44227849.29111661
9029,0.0
9078,175647843.06127715
2,1, 7, 1, 0,17,20.00,30.00,Saturday
14,44227849.29111661
9029,0.0
9078,188887699.66003746
2,1, 7, 1, 0,17,30.00,40.00,Saturday
14,44227849.29111661
9029,0.0
9078,199711710.3074095
2,1, 7, 1, 0,17,40.00,50.00,Saturday
14,44227849.29111661
9029,0.0
9078,127187487.47085817
2,1, 7, 1, 0,17,50.00,60.00,Saturday
14,44227849.29111661
9029,0.0
9078,144673057.1835515
2,1, 7, 1, 0,18, 0.00,10.00,Saturday
14,32447216.797791507
9029,0.0
9078,153073994.46913835
2,1, 7, 1, 0,18,10.00,20.00,Saturday
14,32447216.797791507
9029,0.0
9078,202874413.50292426
2,1, 7, 1, 0,18,20.00,30.00,Saturday
14,32447216.797791507
9029,0.0
9078,189209033.59119076
2,1, 7, 1, 0,18,30.00,40.00,Saturday
14,32447216.797791507
9029,0.0
9078,97035887.67714396
2,1, 7, 1, 0,18,40.00,50.00,Saturday
14,32447216.797791507
9029,0.0
9078,120907199.29795241
2,1, 7, 1, 0,18,50.00,60.00,Saturday
14,32447216.797791507
9029,0.0
9078,180219900.6592772
2,1, 7, 1, 0,19, 0.00,10.00,Saturday
14,27615900.9176223
9029,0.0
9078,106939492.63150305
2,1, 7, 1, 0,19,10.00,20.00,Saturday
14,27615900.9176223
9029,0.0
9078,94578537.15453058
2,1, 7, 1, 0,19,20.00,30.00,Saturday
14,27615900.9176223
9029,0.0
9078,130758409.7744454
2,1, 7, 1, 0,19,30.00,40.00,Saturday
14,27615900.9176223
9029,0.0
9078,80170609.20466359
2,1, 7, 1, 0,19,40.00,50.00,Saturday
14,27615900.9176223
9029,0.0
9078,90050852.59877004
2,1, 7, 1, 0,19,50.00,60.00,Saturday
14,27615900.9176223
9029,0.0
9078,125670117.97125511
2,1, 7, 1, 0,20, 0.00,10.00,Saturday
14,25004378.82023354
9029,0.0
9078,103569594.9412778
2,1, 7, 1, 0,20,10.00,20.00,Saturday
14,25004378.82023354
9029,0.0
9078,71306180.33208999
2,1, 7, 1, 0,20,20.00,30.00,Saturday
14,25004378.82023354
9029,0.0
9078,59032444.304048516
2,1, 7, 1, 0,20,30.00,40.00,Saturday
14,25004378.82023354
9029,0.0
9078,60665334.70787255
2,1, 7, 1, 0,20,40.00,50.00,Saturday
14,25004378.82023354
9029,27108.912249442896
9078,69637189.82630228
2,1, 7, 1, 0,20,50.00,60.00,Saturday
14,25004378.82023354
9029,0.0
9078,27931933.216593012
2,1, 7, 1, 0,21, 0.00,10.00,Saturday
14,25004378.82023354
9029,0.0
9078,21956849.85574791
2,1, 7, 1, 0,21,10.00,20.00,Saturday
14,25004378.82023354
9029,0.0
9078,22883049.63035507
2,1, 7, 1, 0,21,20.00,30.00,Saturday
14,25004378.82023354
9029,0.0
9078,10629794.194219775
2,1, 7, 1, 0,21,30.00,40.00,Saturday
14,25004378.82023354
9029,0.0
9078,25021789.034494497
2,1, 7, 1, 0,21,40.00,50.00,Saturday
14,25004378.82023354
9029,0.0
9078,35208803.78478702
2,1, 7, 1, 0,21,50.00,60.00,Saturday
14,25004378.82023354
9029,0.0
9078,6848962.62947671
2,1, 7, 1, 0,22, 0.00,10.00,Saturday
14,22392856.72284477
9029,0.0
9078,15739013.068636877
2,1, 7, 1, 0,22,10.00,20.00,Saturday
14,22392856.72284477
9029,0.0
9078,7648167.629442386
2,1, 7, 1, 0,22,20.00,30.00,Saturday
14,22392856.72284477
9029,0.0
9078,23973877.715962283
2,1, 7, 1, 0,22,30.00,40.00,Saturday
14,22392856.72284477
9029,0.0
9078,12143331.05836019
2,1, 7, 1, 0,22,40.00,50.00,Saturday
14,22392856.72284477
9029,0.0
9078,5306711.545339379
2,1, 7, 1, 0,22,50.00,60.00,Saturday
14,22392856.72284477
9029,0.0
9078,15045229.327298924
2,1, 7, 1, 0,23, 0.00,10.00,Saturday
14,21544112.041193422
9029,0.0
9078,20497467.662659016
2,1, 7, 1, 0,23,10.00,20.00,Saturday
14,21544112.041193422
9029,0.0
9078,4679282.397885334
2,1, 7, 1, 0,23,20.00,30.00,Saturday
14,21544112.041193422
9029,0.0
9078,6851265.591866964
2,1, 7, 1, 0,23,30.00,40.00,Saturday
14,21544112.041193422
9029,0.0
9078,6028810.904660711
2,1, 7, 1, 0,23,40.00,50.00,Saturday
14,21544112.041193422
9029,0.0
9078,14879274.992222266
2,1, 7, 1, 0,23,50.00,60.00,Saturday
14,21544112.041193422
9029,0.0
9078,2945249.906877761
2,1, 7, 1, 0,24, 0.00,10.00,Saturday
14,21544112.041193422
9029,0.0
9078,10313962.849614237
2,1, 7, 1, 0,24,10.00,20.00,Saturday
14,21544112.041193422
9029,0.0
9078,14770280.145695036
2,1, 7, 1, 0,24,20.00,30.00,Saturday
14,21544112.041193422
9029,0.0
9078,2393399.9596429756
2,1, 7, 1, 0,24,30.00,40.00,Saturday
14,21544112.041193422
9029,0.0
9078,9642759.561970944
2,1, 7, 1, 0,24,40.00,50.00,Saturday
14,21544112.041193422
9029,0.0
9078,6672759.392014274
2,1, 7, 1, 0,24,50.00,60.00,Saturday
14,21544112.041193422
9029,0.0
9078,10583704.229729723
3,1, 7, 1, 0,Saturday
16,5942807137.271762,21544112.041193422, 1,10,83618559.46663596,11,10
2,2, 7, 2, 0, 1, 0.00,10.00,Sunday
14,21544112.041193422
9029,0.0
9078,3818217.817286371
2,2, 7, 2, 0, 1,10.00,20.00,Sunday
14,21544112.041193422
9029,0.0
9078,6317153.349547865
2,2, 7, 2, 0, 1,20.00,30.00,Sunday
14,21544112.041193422
9029,0.0
9078,5952157.602239093
2,2, 7, 2, 0, 1,30.00,40.00,Sunday
14,21544112.041193422
9029,0.0
9078,4115967.5202727867
2,2, 7, 2, 0, 1,40.00,50.00,Sunday
14,21544112.041193422
9029,0.0
9078,7584605.092572003
2,2, 7, 2, 0, 1,50.00,60.00,Sunday
14,21544112.041193422
9029,0.0
9078,9715547.032273142
2,2, 7, 2, 0, 2, 0.00,10.00,Sunday
14,21544112.041193422
9029,0.0
9078,0.0
2,2, 7, 2, 0, 2,10.00,20.00,Sunday
14,21544112.041193422
9029,0.0
9078,444636.26370937924
2,2, 7, 2, 0, 2,20.00,30.00,Sunday
14,21544112.041193422
9029,0.0
9078,0.0
2,2, 7, 2, 0, 2,30.00,40.00,Sunday
14,21544112.041193422
9029,0.0
9078,3473289.675268516
2,2, 7, 2, 0, 2,40.00,50.00,Sunday
14,21544112.041193422
9029,0.0
9078,223675.04252014146
2,2, 7, 2, 0, 2,50.00,60.00,Sunday
14,21544112.041193422
9029,125876.31712508303
9078,9382497.742524441
2,2, 7, 2, 0, 3, 0.00,10.00,Sunday
14,21544112.041193422
9029,31043.984206991467
9078,4346559.858962211
2,2, 7, 2, 0, 3,10.00,20.00,Sunday
14,21544112.041193422
9029,27201.296106283553
9078,4204621.232210056
2,2, 7, 2, 0, 3,20.00,30.00,Sunday
14,21544112.041193422
9029,0.0
9078,6237710.030621869
2,2, 7, 2, 0, 3,30.00,40.00,Sunday
14,21544112.041193422
9029,38071.19595997792
9078,3291.096777182811
2,2, 7, 2, 0, 3,40.00,50.00,Sunday
14,21544112.041193422
9029,0.0
9078,12972995.652969245
2,2, 7, 2, 0, 3,50.00,60.00,Sunday
14,21544112.041193422
9029,9585.336450129395
9078,8937932.729101485
2,2, 7, 2, 0, 4, 0.00,10.00,Sunday
14,21544112.041193422
9029,57124.36046933288
9078,1987108.5663823048
2,2, 7, 2, 0, 4,10.00,20.00,Sunday
14,21544112.041193422
9029,120993.53156150025
9078,7828852.222138424
2,2, 7, 2, 0, 4,20.00,30.00,Sunday
14,21544112.041193422
9029,0.0
9078,0.0
2,2, 7, 2, 0, 4,30.00,40.00,Sunday
14,21544112.041193422
9029,28074.998288049388
9078,0.0
2,2, 7, 2, 0, 4,40.00,50.00,Sunday
14,21544112.041193422
9029,486688.3883002935
9078,874412.7765084095
2,2, 7, 2, 0, 4,50.00,60.00,Sunday
14,21544112.041193422
9029,270303.0852759413
9078,1426363.3868624775
2,2, 7, 2, 0, 5, 0.00,10.00,Sunday
14,21544112.041193422
9029,0.0
9078,0.0
2,2, 7, 2, 0, 5,10.00,20.00,Sunday
14,21544112.041193422
9029,136484.38327433247
9078,0.0
2,2, 7, 2, 0, 5,20.00,30.00,Sunday
14,21544112.041193422
9029,1164698.002858871
9078,0.0
2,2, 7, 2, 0, 5,30.00,40.00,Sunday
14,21544112.041193422
9029,1080371.6845217152
9078,0.0
2,2, 7, 2, 0, 5,40.00,50.00,Sunday
14,21544112.041193422
9029,2491136.5591696915
9078,0.0
2,2, 7, 2, 0, 5,50.00,60.00,Sunday
14,21544112.041193422
9029,1541289.381071619
9078,0.0
2,2, 7, 2, 0, 6, 0.00,10.00,Sunday
14,21544112.041193422
9029,5449272.382034184
9078,0.0
2,2, 7, 2, 0, 6,10.00,20.00,Sunday
14,21544112.041193422
9029,6191613.310025156
9078,0.0
2,2, 7, 2, 0, 6,20.00,30.00,Sunday
14,21544112.041193422
9029,652970.6816603986
9078,0.0
2,2, 7, 2, 0, 6,30.00,40.00,Sunday
14,21544112.041193422
9029,4013402.821969864
9078,0.0
2,2, 7, 2, 0, 6,40.00,50.00,Sunday
14,21544112.041193422
9029,881200.7121841613
9078,0.0
2,2, 7, 2, 0, 6,50.00,60.00,Sunday
14,21544112.041193422
9029,5290263.912314946
9078,0.0
2,2, 7, 2, 0, 7, 0.00,10.00,Sunday
14,21544112.041193422
9029,2819742.3601631024
9078,0.0
2,2, 7, 2, 0, 7,10.00,20.00,Sunday
14,21544112.041193422
9029,1832255.8697308535
9078,2198521.578003996
2,2, 7, 2, 0, 7,20.00,30.00,Sunday
14,21544112.041193422
9029,3439507.34854988
9078,6136706.563985477
2,2, 7, 2, 0, 7,30.00,40.00,Sunday
14,21544112.041193422
9029,0.0
9078,19721758.864735216
2,2, 7, 2, 0, 7,40.00,50.00,Sunday
14,21544112.041193422
9029,118866.14689370383
9078,16056978.637224067
2,2, 7, 2, 0, 7,50.00,60.00,Sunday
14,21544112.041193422
9029,0.0
9078,20948778.603348233
2,2, 7, 2, 0, 8, 0.00,10.00,Sunday
14,21544112.041193422
9029,60183.48776974091
9078,39585309.25347981
2,2, 7, 2, 0, 8,10.00,20.00,Sunday
14,21544112.041193422
9029,0.0
9078,49879976.806372285
2,2, 7, 2, 0, 8,20.00,30.00,Sunday
14,21544112.041193422
9029,149898.46124988544
9078,55211469.928439304
2,2, 7, 2, 0, 8,30.00,40.00,Sunday
14,21544112.041193422
9029,0.0
9078,49662719.305406
2,2, 7, 2, 0, 8,40.00,50.00,Sunday
14,21544112.041193422
9029,0.0
9078,85208454.7990696
2,2, 7, 2, 0, 8,50.00,60.00,Sunday
14,21544112.041193422
9029,0.0
9078,72872277.05694109
2,2, 7, 2, 0, 9, 0.00,10.00,Sunday
14,21544112.041193422
9029,0.0
9078,149837153.1849664
2,2, 7, 2, 0, 9,10.00,20.00,Sunday
14,21544112.041193422
9029,124555.6554790061
9078,175454955.2265212
2,2, 7, 2, 0, 9,20.00,30.00,Sunday
14,21544112.041193422
9029,25223.442382290086
9078,77686198.1813706
2,2, 7, 2, 0, 9,30.00,40.00,Sunday
14,21544112.041193422
9029,0.0
9078,121028651.41525787
2,2, 7, 2, 0, 9,40.00,50.00,Sunday
14,21544112.041193422
9029,0.0
9078,374286248.5083517
2,2, 7, 2, 0, 9,50.00,60.00,Sunday
14,21544112.041193422
9029,0.0
9078,137540589.25187042
2,2, 7, 2, 0,10, 0.00,10.00,Sunday
14,22392856.72284477
9029,0.0
9078,127641908.35541157
2,2, 7, 2, 0,10,10.00,20.00,Sunday
14,22392856.72284477
9029,0.0
9078,223744161.70404962
2,2, 7, 2, 0,10,20.00,30.00,Sunday
14,22392856.72284477
9029,0.0
9078,213914232.3651195
2,2, 7, 2, 0,10,30.00,40.00,Sunday
14,22392856.72284477
9029,0.0
9078,244640841.0336892
2,2, 7, 2, 0,10,40.00,50.00,Sunday
14,22392856.72284477
9029,0.0
9078,125354890.34242858
2,2, 7, 2, 0,10,50.00,60.00,Sunday
14,22392856.72284477
9029,0.0
9078,195503616.6637417
2,2, 7, 2, 0,11, 0.00,10.00,Sunday
14,26310139.86892792
9029,66677.25988582826
9078,255717350.8488028
2,2, 7, 2, 0,11,10.00,20.00,Sunday
14,26310139.86892792
9029,0.0
9078,195753614.0273378
2,2, 7, 2, 0,11,20.00,30.00,Sunday
14,26310139.86892792
9029,0.0
9078,167607060.63130745
2,2, 7, 2, 0,11,30.00,40.00,Sunday
14,26310139.86892792
9029,0.0
9078,126996973.38580687
2,2, 7, 2, 0,11,40.00,50.00,Sunday
14,26310139.86892792
9029,97602.41293567931
9078,201835075.40022358
2,2, 7, 2, 0,11,50.00,60.00,Sunday
14,26310139.86892792
9029,183332.18426813598
9078,186887203.88344827
2,2, 7, 2, 0,12, 0.00,10.00,Sunday
14,26310139.86892792
9029,0.0
9078,176686155.06962317
2,2, 7, 2, 0,12,10.00,20.00,Sunday
14,26310139.86892792
9029,0.0
9078,128874996.74980694
2,2, 7, 2, 0,12,20.00,30.00,Sunday
14,26310139.86892792
9029,0.0
9078,197770838.6182172
2,2, 7, 2, 0,12,30.00,40.00,Sunday
14,26310139.86892792
9029,0.0
9078,160010237.0973109
2,2, 7, 2, 0,12,40.00,50.00,Sunday
14,26310139.86892792
9029,0.0
9078,174703771.1415989
2,2, 7, 2, 0,12,50.00,60.00,Sunday
14,26310139.86892792
9029,0.0
9078,114673762.61895959
2,2, 7, 2, 0,13, 0.00,10.00,Sunday
14,28921661.966316685
9029,0.0
9078,124352068.70184784
2,2, 7, 2, 0,13,10.00,20.00,Sunday
14,28921661.966316685
9029,99752.03462615494
9078,204060357.53007948
2,2, 7, 2, 0,13,20.00,30.00,Sunday
14,28921661.966316685
9029,0.0
9078,148094321.62792093
2,2, 7, 2, 0,13,30.00,40.00,Sunday
14,28921661.966316685
9029,0.0
9078,139270906.6021463
2,2, 7, 2, 0,13,40.00,50.00,Sunday
14,28921661.966316685
9029,53525.604915263815
9078,150961095.44889215
2,2, 7, 2, 0,13,50.00,60.00,Sunday
14,28921661.966316685
9029,0.0
9078,237198847.37538415
2,2, 7, 2, 0,14, 0.00,10.00,Sunday
14,28921661.966316685
9029,0.0
9078,123427927.73371385
2,2, 7, 2, 0,14,10.00,20.00,Sunday
14,28921661.966316685
9029,0.0
9078,142543180.8740164
2,2, 7, 2, 0,14,20.00,30.00,Sunday
14,28921661.966316685
9029,0.0
9078,172161336.69516695
2,2, 7, 2, 0,14,30.00,40.00,Sunday
14,28921661.966316685
9029,0.0
9078,127941348.39404143
2,2, 7, 2, 0,14,40.00,50.00,Sunday
14,28921661.966316685
9029,0.0
9078,172493719.95637974
2,2, 7, 2, 0,14,50.00,60.00,Sunday
14,28921661.966316685
9029,0.0
9078,180423661.9746325
2,2, 7, 2, 0,15, 0.00,10.00,Sunday
14,28921661.966316685
9029,0.0
9078,230122132.12222674
2,2, 7, 2, 0,15,10.00,20.00,Sunday
14,28921661.966316685
9029,0.0
9078,243226019.58274993
2,2, 7, 2, 0,15,20.00,30.00,Sunday
14,28921661.966316685
9029,0.0
9078,215208277.20940334
2,2, 7, 2, 0,15,30.00,40.00,Sunday
14,28921661.966316685
9029,0.0
9078,214146042.47371164
2,2, 7, 2, 0,15,40.00,50.00,Sunday
14,28921661.966316685
9029,0.0
9078,251457357.84070247
2,2, 7, 2, 0,15,50.00,60.00,Sunday
14,28921661.966316685
9029,0.0
9078,203146362.9078808
2,2, 7, 2, 0,16, 0.00,10.00,Sunday
14,28921661.966316685
9029,0.0
9078,211091148.50575832
2,2, 7, 2, 0,16,10.00,20.00,Sunday
14,28921661.966316685
9029,0.0
9078,293123908.8494952
2,2, 7, 2, 0,16,20.00,30.00,Sunday
14,28921661.966316685
9029,0.0
9078,236292133.53404942
2,2, 7, 2, 0,16,30.00,40.00,Sunday
14,28921661.966316685
9029,0.0
9078,225055894.6698434
2,2, 7, 2, 0,16,40.00,50.00,Sunday
14,28921661.966316685
9029,0.0
9078,235754499.4881397
2,2, 7, 2, 0,16,50.00,60.00,Sunday
14,28921661.966316685
9029,0.0
9078,290691584.815377
2,2, 7, 2, 0,17, 0.00,10.00,Sunday
14,28921661.966316685
9029,0.0
9078,211459945.2962397
2,2, 7, 2, 0,17,10.00,20.00,Sunday
14,28921661.966316685
9029,0.0
9078,254072776.9275233
2,2, 7, 2, 0,17,20.00,30.00,Sunday
14,28921661.966316685
9029,0.0
9078,220728742.2986078
2,2, 7, 2, 0,17,30.00,40.00,Sunday
14,28921661.966316685
9029,0.0
9078,163924433.6295376
2,2, 7, 2, 0,17,40.00,50.00,Sunday
14,28921661.966316685
9029,0.0
9078,231128366.14400122
2,2, 7, 2, 0,17,50.00,60.00,Sunday
14,28921661.966316685
9029,0.0
9078,240665052.79240242
2,2, 7, 2, 0,18, 0.00,10.00,Sunday
14,26310139.86892792
9029,0.0
9078,220558185.30575585
2,2, 7, 2, 0,18,10.00,20.00,Sunday
14,26310139.86892792
9029,0.0
9078,199921814.4179537
2,2, 7, 2, 0,18,20.00,30.00,Sunday
14,26310139.86892792
9029,0.0
9078,211550952.57337964
2,2, 7, 2, 0,18,30.00,40.00,Sunday
14,26310139.86892792
9029,0.0
9078,116488511.76408106
2,2, 7, 2, 0,18,40.00,50.00,Sunday
14,26310139.86892792
9029,0.0
9078,204453788.434178
2,2, 7, 2, 0,18,50.00,60.00,Sunday
14,26310139.86892792
9029,0.0
9078,168356462.1669022
2,2, 7, 2, 0,19, 0.00,10.00,Sunday
14,23698617.771539148
9029,0.0
9078,131096497.5661221
2,2, 7, 2, 0,19,10.00,20.00,Sunday
14,23698617.771539148
9029,176017.29590421307
9078,168162685.18547675
2,2, 7, 2, 0,19,20.00,30.00,Sunday
14,23698617.771539148
9029,0.0
9078,116724517.23590295
2,2, 7, 2, 0,19,30.00,40.00,Sunday
14,23698617.771539148
9029,0.0
9078,135347054.1537655
2,2, 7, 2, 0,19,40.00,50.00,Sunday
14,23698617.771539148
9029,0.0
9078,160304439.26697767
2,2, 7, 2, 0,19,50.00,60.00,Sunday
14,23698617.771539148
9029,0.0
9078,139735432.5926684
2,2, 7, 2, 0,20, 0.00,10.00,Sunday
14,21544112.041193422
9029,0.0
9078,125100067.7135092
2,2, 7, 2, 0,20,10.00,20.00,Sunday
14,21544112.041193422
9029,76816.20234190096
9078,100602555.50417317
2,2, 7, 2, 0,20,20.00,30.00,Sunday
14,21544112.041193422
9029,0.0
9078,124566194.16485977
2,2, 7, 2, 0,20,30.00,40.00,Sunday
14,21544112.041193422
9029,0.0
9078,79891741.59533243
2,2, 7, 2, 0,20,40.00,50.00,Sunday
14,21544112.041193422
9029,0.0
9078,112498803.59366404
2,2, 7, 2, 0,20,50.00,60.00,Sunday
14,21544112.041193422
9029,0.0
9078,68060456.1427378
2,2, 7, 2, 0,21, 0.00,10.00,Sunday
14,21544112.041193422
9029,0.0
9078,94971030.36463
2,2, 7, 2, 0,21,10.00,20.00,Sunday
14,21544112.041193422
9029,0.0
9078,94826225.45113833
2,2, 7, 2, 0,21,20.00,30.00,Sunday
14,21544112.041193422
9029,0.0
9078,68089912.4213357
2,2, 7, 2, 0,21,30.00,40.00,Sunday
14,21544112.041193422
9029,0.0
9078,45537508.3187816
2,2, 7, 2, 0,21,40.00,50.00,Sunday
14,21544112.041193422
9029,0.0
9078,36216178.501365304
2,2, 7, 2, 0,21,50.00,60.00,Sunday
14,21544112.041193422
9029,0.0
9078,52816621.37239656
2,2, 7, 2, 0,22, 0.00,10.00,Sunday
14,21544112.041193422
9029,0.0
9078,46503303.328115486
2,2, 7, 2, 0,22,10.00,20.00,Sunday
14,21544112.041193422
9029,0.0
9078,59317749.468548335
2,2, 7, 2, 0,22,20.00,30.00,Sunday
14,21544112.041193422
9029,0.0
9078,30685061.789284978
2,2, 7, 2, 0,22,30.00,40.00,Sunday
14,21544112.041193422
9029,0.0
9078,18563772.612037346
2,2, 7, 2, 0,22,40.00,50.00,Sunday
14,21544112.041193422
9029,0.0
9078,25924527.083097402
2,2, 7, 2, 0,22,50.00,60.00,Sunday
14,21544112.041193422
9029,0.0
9078,14102293.330658223
2,2, 7, 2, 0,23, 0.00,10.00,Sunday
14,21544112.041193422
9029,0.0
9078,35138854.244639575
2,2, 7, 2, 0,23,10.00,20.00,Sunday
14,21544112.041193422
9029,0.0
9078,57158968.17547229
2,2, 7, 2, 0,23,20.00,30.00,Sunday
14,21544112.041193422
9029,0.0
9078,25543823.181194037
2,2, 7, 2, 0,23,30.00,40.00,Sunday
14,21544112.041193422
9029,0.0
9078,39161516.17564009
2,2, 7, 2, 0,23,40.00,50.00,Sunday
14,21544112.041193422
9029,0.0
9078,27989775.10226628
2,2, 7, 2, 0,23,50.00,60.00,Sunday
14,21544112.041193422
9029,0.0
9078,10100624.056352222
2,2, 7, 2, 0,24, 0.00,10.00,Sunday
14,21544112.041193422
9029,0.0
9078,46902974.70963204
2,2, 7, 2, 0,24,10.00,20.00,Sunday
14,21544112.041193422
9029,0.0
9078,4609553.365209147
2,2, 7, 2, 0,24,20.00,30.00,Sunday
14,21544112.041193422
9029,0.0
9078,16191553.108800633
2,2, 7, 2, 0,24,30.00,40.00,Sunday
14,21544112.041193422
9029,0.0
9078,11181479.162227312
2,2, 7, 2, 0,24,40.00,50.00,Sunday
14,21544112.041193422
9029,0.0
9078,34361960.70410366
2,2, 7, 2, 0,24,50.00,60.00,Sunday
14,21544112.041193422
9029,0.0
9078,35001967.13240008
3,2, 7, 2, 0,Sunday
16,3427486635.0567565,21544112.041193422, 1,10,28921661.966316685,13,10
2,3, 7, 3, 0, 1, 0.00,10.00,Monday
14,27025699.06998351
9029,0.0
9078,5321229.884863459
2,3, 7, 3, 0, 1,10.00,20.00,Monday
14,27025699.06998351
9029,0.0
9078,40470045.51350322
2,3, 7, 3, 0, 1,20.00,30.00,Monday
14,27025699.06998351
9029,0.0
9078,4180512.7348750783
2,3, 7, 3, 0, 1,30.00,40.00,Monday
14,27025699.06998351
9029,0.0
9078,17033035.826288316
2,3, 7, 3, 0, 1,40.00,50.00,Monday
14,27025699.06998351
9029,0.0
9078,17300394.55725045
2,3, 7, 3, 0, 1,50.00,60.00,Monday
14,27025699.06998351
9029,0.0
9078,6454658.964927417
2,3, 7, 3, 0, 2, 0.00,10.00,Monday
14,27025699.06998351
9029,0.0
9078,12756931.440191353
2,3, 7, 3, 0, 2,10.00,20.00,Monday
14,27025699.06998351
9029,0.0
9078,6541821.256018643
2,3, 7, 3, 0, 2,20.00,30.00,Monday
14,27025699.06998351
9029,0.0
9078,7170663.964748871
2,3, 7, 3, 0, 2,30.00,40.00,Monday
14,27025699.06998351
9029,0.0
9078,3752313.742697518
2,3, 7, 3, 0, 2,40.00,50.00,Monday
14,27025699.06998351
9029,0.0
9078,8575295.981143652
2,3, 7, 3, 0, 2,50.00,60.00,Monday
14,27025699.06998351
9029,0.0
9078,5477919.991205454
2,3, 7, 3, 0, 3, 0.00,10.00,Monday
14,27025699.06998351
9029,0.0
9078,21057177.06292014
2,3, 7, 3, 0, 3,10.00,20.00,Monday
14,27025699.06998351
9029,0.0
9078,19603438.9383134
2,3, 7, 3, 0, 3,20.00,30.00,Monday
14,27025699.06998351
9029,0.0
9078,13859251.530770972
2,3, 7, 3, 0, 3,30.00,40.00,Monday
14,27025699.06998351
9029,0.0
9078,3053167.6519736606
2,3, 7, 3, 0, 3,40.00,50.00,Monday
14,27025699.06998351
9029,0.0
9078,0.0
2,3, 7, 3, 0, 3,50.00,60.00,Monday
14,27025699.06998351
9029,0.0
9078,1506417.7473284032
2,3, 7, 3, 0, 4, 0.00,10.00,Monday
14,27025699.06998351
9029,0.0
9078,12951330.616998909
2,3, 7, 3, 0, 4,10.00,20.00,Monday
14,27025699.06998351
9029,0.0
9078,7061657.398934869
2,3, 7, 3, 0, 4,20.00,30.00,Monday
14,27025699.06998351
9029,0.0
9078,459179.73629735224
2,3, 7, 3, 0, 4,30.00,40.00,Monday
14,27025699.06998351
9029,0.0
9078,25486619.084218927
2,3, 7, 3, 0, 4,40.00,50.00,Monday
14,27025699.06998351
9029,0.0
9078,7125526.103169536
2,3, 7, 3, 0, 4,50.00,60.00,Monday
14,27025699.06998351
9029,0.0
9078,8280747.983593067
2,3, 7, 3, 0, 5, 0.00,10.00,Monday
14,27025699.06998351
9029,0.0
9078,6783742.350649504
2,3, 7, 3, 0, 5,10.00,20.00,Monday
14,27025699.06998351
9029,0.0
9078,11806765.511898153
2,3, 7, 3, 0, 5,20.00,30.00,Monday
14,27025699.06998351
9029,0.0
9078,6351992.968902255
2,3, 7, 3, 0, 5,30.00,40.00,Monday
14,27025699.06998351
9029,0.0
9078,3594485.0901892926
2,3, 7, 3, 0, 5,40.00,50.00,Monday
14,27025699.06998351
9029,0.0
9078,0.0
2,3, 7, 3, 0, 5,50.00,60.00,Monday
14,27025699.06998351
9029,0.0
9078,4458327.344899785
2,3, 7, 3, 0, 6, 0.00,10.00,Monday