Program Version,EnergyPlus, Version 23.1.0-87ed9199d4, YMD=2026.05.09 11:13
1,5,Environment Title[],Latitude[deg],Longitude[deg],Time Zone[],Elevation[m]
2,8,Day of Simulation[],Month[],Day of Month[],DST Indicator[1=yes 0=no],Hour[],StartMinute[],EndMinute[],DayType
3,5,Cumulative Day of Simulation[],Month[],Day of Month[],DST Indicator[1=yes 0=no],DayType  ! When Daily Report Variables Requested
4,2,Cumulative Days of Simulation[],Month[]  ! When Monthly Report Variables Requested
5,1,Cumulative Days of Simulation[] ! When Run Period Report Variables Requested
6,1,Calendar Year of Simulation[] ! When Annual Report Variables Requested
7,1,Environment,Site Outdoor Air Drybulb Temperature [C] !TimeStep
8,1,Environment,Site Outdoor Air Relative Humidity [%] !TimeStep
9,1,Environment,Site Wind Speed [m/s] !TimeStep
10,1,Environment,Site Wind Direction [deg] !TimeStep
11,1,Environment,Site Diffuse Solar Radiation Rate per Area [W/m2] !TimeStep
12,1,Environment,Site Direct Solar Radiation Rate per Area [W/m2] !TimeStep
5281,1,THERMAL ZONE: P1-1-COMMERCE 1,Zone Air Temperature [C] !TimeStep
5416,1,THERMAL ZONE: P1-1-DINING 1,Zone Air Temperature [C] !TimeStep
5479,1,THERMAL ZONE: P1-1-OFFICE 1,Zone Air Temperature [C] !TimeStep
5542,1,THERMAL ZONE: P1-1-OFFICE 2,Zone Air Temperature [C] !TimeStep
5605,1,THERMAL ZONE: P1-2-BREAKROOM 1,Zone Air Temperature [C] !TimeStep
5668,1,THERMAL ZONE: P1-2-DINING 1,Zone Air Temperature [C] !TimeStep
5731,1,THERMAL ZONE: P1-2-RESTROOM 1,Zone Air Temperature [C] !TimeStep
5794,1,THERMAL ZONE: P1-3-COMMERCE 1,Zone Air Temperature [C] !TimeStep
5857,1,THERMAL ZONE: P1-4-COMMERCE 1,Zone Air Temperature [C] !TimeStep
5920,1,THERMAL ZONE: P1-4-DINING 1,Zone Air Temperature [C] !TimeStep
5983,1,THERMAL ZONE: P1-5-COMMERCE 1,Zone Air Temperature [C] !TimeStep
6046,1,THERMAL ZONE: P1-6-COMMERCE 1,Zone Air Temperature [C] !TimeStep
6109,1,THERMAL ZONE: P1-7-DINING 1,Zone Air Temperature [C] !TimeStep
6172,1,THERMAL ZONE: P1-7-OFFICE 1,Zone Air Temperature [C] !TimeStep
6235,1,THERMAL ZONE: P1-8-RESTROOM 1,Zone Air Temperature [C] !TimeStep
6298,1,THERMAL ZONE: P1-9-COMMERCE 1,Zone Air Temperature [C] !TimeStep
6361,1,THERMAL ZONE: P1-10-RESTROOM 1,Zone Air Temperature [C] !TimeStep
6424,1,THERMAL ZONE: P1-11-COMMERCE 1,Zone Air Temperature [C] !TimeStep
6487,1,THERMAL ZONE: P1-11-COMMERCE 2,Zone Air Temperature [C] !TimeStep
6550,1,THERMAL ZONE: P1-11-OFFICE 1,Zone Air Temperature [C] !TimeStep
6613,1,THERMAL ZONE: P1-11-OFFICE 2,Zone Air Temperature [C] !TimeStep
6676,1,THERMAL ZONE: P2-1-COMMERCE 2,Zone Air Temperature [C] !TimeStep
6739,1,THERMAL ZONE: P2-1-COMMERCE 3,Zone Air Temperature [C] !TimeStep
6802,1,THERMAL ZONE: P2-2-RESTROOM 1,Zone Air Temperature [C] !TimeStep
6865,1,THERMAL ZONE: P3-1-COMMERCE 1,Zone Air Temperature [C] !TimeStep
6928,1,THERMAL ZONE: P3-1-DINING 1,Zone Air Temperature [C] !TimeStep
6991,1,THERMAL ZONE: P3-2-DINING 1,Zone Air Temperature [C] !TimeStep
7054,1,THERMAL ZONE: P3-2-RESTROOM 1,Zone Air Temperature [C] !TimeStep
7117,1,THERMAL ZONE: P4-1-COMMERCE 1,Zone Air Temperature [C] !TimeStep
7180,1,THERMAL ZONE: P4-2-COMMERCE 1,Zone Air Temperature [C] !TimeStep
7243,1,THERMAL ZONE: P4-2-COMMERCE 2,Zone Air Temperature [C] !TimeStep
7306,1,THERMAL ZONE: P4-3-COMMERCE 1,Zone Air Temperature [C] !TimeStep
7369,1,THERMAL ZONE: P4-3-COMMERCE 2,Zone Air Temperature [C] !TimeStep
7432,1,THERMAL ZONE: HALL-1-1,Zone Air Temperature [C] !TimeStep
7495,1,THERMAL ZONE: HALL-1-2,Zone Air Temperature [C] !TimeStep
7558,1,THERMAL ZONE: HALL-1-3,Zone Air Temperature [C] !TimeStep
7621,1,THERMAL ZONE: HALL-1-4,Zone Air Temperature [C] !TimeStep
7684,1,THERMAL ZONE: HALL-1-5,Zone Air Temperature [C] !TimeStep
7747,1,THERMAL ZONE: HALL-1-6,Zone Air Temperature [C] !TimeStep
7810,1,THERMAL ZONE: HALL-1-7,Zone Air Temperature [C] !TimeStep
7873,1,THERMAL ZONE: HALL-1-8,Zone Air Temperature [C] !TimeStep
7936,1,THERMAL ZONE: HALL-1-9,Zone Air Temperature [C] !TimeStep
7999,1,THERMAL ZONE: HALL-1-10,Zone Air Temperature [C] !TimeStep
8062,1,THERMAL ZONE: HALL-1-11,Zone Air Temperature [C] !TimeStep
8125,1,THERMAL ZONE: HALL-1-12,Zone Air Temperature [C] !TimeStep
8188,1,THERMAL ZONE: HALL-1-13,Zone Air Temperature [C] !TimeStep
8251,1,THERMAL ZONE: HALL-2-1,Zone Air Temperature [C] !TimeStep
8314,1,THERMAL ZONE: HALL-2-2,Zone Air Temperature [C] !TimeStep
8377,1,THERMAL ZONE: HALL-2-3,Zone Air Temperature [C] !TimeStep
8440,1,THERMAL ZONE: HALL-3-1,Zone Air Temperature [C] !TimeStep
8503,1,THERMAL ZONE: HALL-3-2,Zone Air Temperature [C] !TimeStep
8566,1,THERMAL ZONE: HALL-3-3,Zone Air Temperature [C] !TimeStep
8629,1,THERMAL ZONE: HALL-4-1,Zone Air Temperature [C] !TimeStep
8692,1,THERMAL ZONE: HALL-4-2,Zone Air Temperature [C] !TimeStep
8755,1,THERMAL ZONE: HALL-4-3,Zone Air Temperature [C] !TimeStep
8818,1,THERMAL ZONE: HALL-4-4,Zone Air Temperature [C] !TimeStep
9029,1,DistrictHeating:Facility [J] !TimeStep
9078,1,DistrictCooling:Facility [J] !TimeStep
End of Data Dictionary
1,RUN PERIOD 1,  39.80, 116.47,   8.00,  32.00
2,1, 7, 1, 0, 1, 0.00,10.00,Saturday
7,24.18055721503882
8,97.66666666666667
9,3.0
10,350.0
11,0.0
12,0.0
5281,22.718459362459907
5416,22.244335740101658
5479,22.444174918486304
5542,22.320179510106296
5605,21.87772818749575
5668,22.371669330426524
5731,23.119350784021766
5794,22.590403601822967
5857,22.60235547636277
5920,22.356058964830208
5983,22.57150522368853
6046,22.552274484818327
6109,22.56232050799051
6172,22.47661020671728
6235,23.056376030886696
6298,22.62635870932294
6361,23.040879043678718
6424,22.79204705121464
6487,22.689311781642694
6550,22.431304976422805
6613,22.554505378593788
6676,22.68902834712108
6739,22.71930280505593
6802,23.077692976868406
6865,22.663515701182174
6928,22.303245625430645
6991,22.357525863095024
7054,23.13196750719588
7117,22.606650818049754
7180,22.73723862523775
7243,22.767138535879763
7306,22.804769786527217
7369,22.83022860788019
7432,22.25976839400902
7495,22.240025921866465
7558,22.256717490380385
7621,22.243366129583105
7684,22.243613459839697
7747,22.22481395715832
7810,22.242594144280282
7873,22.254473334803283
7936,22.276631848002427
7999,22.262052205880455
8062,22.2074956610339
8125,22.28850508609371
8188,22.31030400107975
8251,22.267441274572104
8314,22.248436467258507
8377,22.27821988633988
8440,22.247488433827932
8503,22.1910930178657
8566,22.24281241025942
8629,22.310923586245703
8692,22.298977208217664
8755,22.294165201814156
8818,22.286420627584864
9029,0.0
9078,0.0
2,1, 7, 1, 0, 1,10.00,20.00,Saturday
7,24.083079463266643
8,95.33333333333334
9,3.0
10,340.0
11,0.0
12,0.0
5281,22.650568552636507
5416,22.194838721699778
5479,22.386230212591457
5542,22.265018489975578
5605,21.84682598747238
5668,22.308412723307214
5731,23.0558106491942
5794,22.52112708201242
5857,22.530182896139376
5920,22.290173008358956
5983,22.504224766720338
6046,22.48733495792806
6109,22.49133028325024
6172,22.413079723953523
6235,22.9947686997257
6298,22.554477132639914
6361,22.979607566154186
6424,22.721310732863152
6487,22.622065887252255
6550,22.369887212123867
6613,22.49275036442484
6676,22.612772849158823
6739,22.644095367350747
6802,23.015634416487636
6865,22.595329220532566
6928,22.246895932877912
6991,22.298801968196518
7054,23.067605208404355
7117,22.53892972314789
7180,22.664536938001643
7243,22.6920056996863
7306,22.725855793258066
7369,22.750508877716985
7432,22.219778581082927
7495,22.20083927769314
7558,22.21741632690198
7621,22.203151393869938
7684,22.203483985685477
7747,22.18494801046996
7810,22.20299273644793
7873,22.21428456583847
7936,22.237463549725387
7999,22.22254893151681
8062,22.167880851085126
8125,22.24891070723103
8188,22.270533519991915
8251,22.226993934514642
8314,22.20873064569421
8377,22.239232207597123
8440,22.207722388285074
8503,22.1522155655801
8566,22.203564194779233
8629,22.270929474181674
8692,22.257761311914344
8755,22.252351621781358
8818,22.245825808811684
9029,0.0
9078,0.0
2,1, 7, 1, 0, 1,20.00,30.00,Saturday
7,23.98560171149446
8,93.0
9,3.0
10,330.0
11,0.0
12,0.0
5281,22.582982238366615
5416,22.146192613988315
5479,22.329531503452493
5542,22.211109333046913
5605,21.81587569555766
5668,22.24721532577457
5731,22.9908321428265
5794,22.45277161263786
5857,22.459144196941523
5920,22.226340584037953
5983,22.437652848505216
6046,22.422859342642674
6109,22.42247260149822
6172,22.35132405318335
6235,22.931695498151136
6298,22.483727834985018
6361,22.916922402635652
6424,22.65107882670178
6487,22.555212556082886
6550,22.31017742702033
6613,22.432506474464056
6676,22.537841424896296
6739,22.57008103851147
6802,22.952045679604325
6865,22.527648459097477
6928,22.191885096400235
6991,22.241737419148084
7054,23.001809141826303
7117,22.471877081901237
7180,22.592748244164806
7243,22.617995718299966
7306,22.648402829795323
7369,22.67228483703065
7432,22.18027267692706
7495,22.1620032861366
7558,22.17850999592785
7621,22.163552611506304
7684,22.16394368530763
7747,22.14571749195884
7810,22.16378396076209
7873,22.174366285721568
7936,22.19847628713437
7999,22.183730363230794
8062,22.128761347437308
8125,22.209601931585063
8188,22.230709665362365
8251,22.188140968498637
8314,22.170165210457814
8377,22.201253299292834
8440,22.168531002174653
8503,22.113570028470473
8566,22.16489344501143
8629,22.23159267692645
8692,22.217080183105686
8755,22.211268294175934
8818,22.206010580543147
9029,0.0
9078,0.0
2,1, 7, 1, 0, 1,30.00,40.00,Saturday
7,23.88812395972228
8,90.66666666666666
9,3.0
10,320.0
11,0.0
12,0.0
5281,22.51590553519303
5416,22.09838760805702
5479,22.274062642991016
5542,22.158284571333677
5605,21.784874999107522
5668,22.187974722218808
5731,22.925079518707065
5794,22.385479587507085
5857,22.389383176884778
5920,22.164511195772807
5983,22.371948174004334
6046,22.35901864343664
6109,22.355688384962402
6172,22.29130237828341
6235,22.867811112135858
6298,22.414250650062485
6361,22.724686959131716
6424,22.58151997970777
6487,22.488934847073978
6550,22.252114021381658
6613,22.373738384465256
6676,22.464395289505333
6739,22.497423865119544
6802,22.887592259657705
6865,22.447232958847817
6928,22.138193110913484
6991,22.186246608038108
7054,22.93524854850957
7117,22.405641340008817
7180,22.52202409273639
7243,22.545275164561417
7306,22.572561498770124
7369,22.59571661748009
7432,22.141138678450808
7495,22.12345820771606
7558,22.139971256007147
7621,22.1244377022493
7684,22.124852359600823
7747,22.106847191968406
7810,22.12483205010117
7873,22.134906562737676
7936,22.159830050800814
7999,22.145479290161422
8062,22.09027944796678
8125,22.17084102311653
8188,22.19130787666476
8251,22.14973169526838
8314,22.132096059023176
8377,22.16354722033815
8440,22.129931371678286
8503,22.07527138965347
8566,22.126739503942392
8629,22.192797589436186
8692,22.176937126282787
8755,22.170820453104486
8818,22.16678936056572
9029,0.0
9078,1025840.5880084331
2,1, 7, 1, 0, 1,40.00,50.00,Saturday
7,23.790646207950097
8,88.33333333333334
9,3.0
10,310.0
11,0.0
12,0.0
5281,22.485798534485056
5416,22.080762248302236
5479,22.252949213823776
5542,22.138291758913077
5605,21.77075078657808
5668,22.164744693862044
5731,22.48387761720239
5794,22.35460809499989
5857,22.357591938257553
5920,22.140590695570516
5983,22.34234859553291
6046,22.330049595624907
6109,22.329021878496444
6172,22.26806969590759
6235,22.503608041441964
6298,22.382287545034927
6361,22.461804468581917
6424,22.550734524752812
6487,22.458869606312774
6550,22.229510834226296
6613,22.351468348223918
6676,22.430366263496595
6739,22.387367586130672
6802,22.850285811509302
6865,22.178314348679297
6928,22.094416390185955
6991,22.16442978052786
7054,22.65395772798176
7117,22.376404778189425
7180,22.489556425579554
7243,22.251399636752915
7306,22.536544836271784
7369,22.430645010658573
7432,22.123108315302826
7495,22.103428236688835
7558,22.12214377456195
7621,22.10447296684331
7684,22.106115506277572
7747,22.087789412844025
7810,22.104890605603636
7873,22.115911105406525
7936,22.141113797820623
7999,22.12817572145123
8062,22.07006867644622
8125,22.153188471981125
8188,22.17416954040457
8251,22.13243570928057
8314,22.115458823671375
8377,22.146322281328093
8440,22.114213646375056
8503,22.057893058182202
8566,22.1113654348626
8629,22.17585579282662
8692,22.159255522904378
8755,22.152572605738804
8818,22.149154098863946
9029,0.0
9078,8726658.592356035
2,1, 7, 1, 0, 1,50.00,60.00,Saturday
7,23.69316845617792
8,86.0
9,3.0
10,300.0
11,0.0
12,0.0
5281,22.42778150646348
5416,22.04449611298919
5479,22.21015901522241
5542,22.09764680301649
5605,21.743148683384835
5668,22.118530212040714
5731,22.419929145733562
5794,22.295906381351287
5857,22.29715548976028
5920,22.092839030674988
5983,22.285695766563855
6046,22.27438797193288
6109,22.276128933868183
6172,22.221614995573997
6235,22.444674710555216
6298,22.321684745944502
6361,22.469644640102842
6424,22.49080423621481
6487,22.40111945740002
6550,22.184371042645758
6613,22.30668164745331
6676,22.366153648376656
6739,22.31289675728231
6802,22.78507477680679
6865,22.076076166120117
6928,22.04681432968138
6991,22.120984013211533
7054,22.5883650167237
7117,22.320019684145237
7180,22.427782240706858
7243,22.1501278775851
7306,22.469261738413064
7369,22.350042239995233
7432,22.089704322934054
7495,22.069127666897266
7558,22.089365385442992
7621,22.069783942809725
7684,22.07235172443454
7747,22.053800758633958
7810,22.070263737036676
7873,22.08184547003478
7936,22.10772245940302
7999,22.09600837948828
8062,22.03555277333553
8125,22.120714214418747
8188,22.14189819491174
8251,22.100006916584924
8314,22.083796848475494
8377,22.114469742516057
8440,22.083515356510308
8503,22.025898839480902
8566,22.081260006060436
8629,22.144209468541458
8692,22.126040186297377
8755,22.118707119156554
8818,22.116353438891196
9029,0.0
9078,0.0
2,1, 7, 1, 0, 2, 0.00,10.00,Saturday
7,23.469416698423423
8,86.83333333333334
9,2.8333333333333335
10,313.3333333333333
11,0.0
12,0.0
5281,22.337938647949713
5416,21.989746171249568
5479,22.147570951211808
5542,22.03805082897811
5605,21.70369513370179
5668,22.051963051122833
5731,22.51613381537786
5794,22.145981069036573
5857,22.205831585366944
5920,22.023837866211156
5983,22.198132012707173
6046,22.18851225344203
6109,22.200558308506572
6172,22.15442345679972
6235,22.506120621125284
6298,22.23036753822468
6361,22.530124090248837
6424,22.398267142743613
6487,22.31212797227562
6550,22.119126605367875
6613,22.241075820494185
6676,22.27061373388008
6739,22.249160524740017
6802,22.678503485464223
6865,22.07627230883187
6928,21.993034416647877
6991,22.0577364783192
7054,22.361976269373134
7117,22.232106157101626
7180,22.33439449652809
7243,22.162726223719687
7306,22.370611403004336
7369,22.30811553744025
7432,22.043591669680378
7495,22.02621654570116
7558,22.04511555809637
7621,22.025404572658534
7684,22.027703443953833
7747,22.009222476686265
7810,22.026481708499844
7873,22.037652578468226
7936,22.06466334650949
7999,22.051576438046858
8062,21.992748685492572
8125,22.076564053909383
8188,22.096894294022825
8251,22.054272448081864
8314,22.03857482620338
8377,22.070198424018532
8440,22.03844551991199
8503,21.982241009219635
8566,22.03665272141823
8629,22.09967385115113
8692,22.07966767338775
8755,22.07181828817262
8818,22.070562605805783
9029,0.0
9078,1960090.3553637944
2,1, 7, 1, 0, 2,10.00,20.00,Saturday
7,23.24566494066893
8,87.66666666666667
9,2.6666666666666665
10,326.6666666666667
11,0.0
12,0.0
5281,22.23327514327374
5416,21.92849789229614
5479,22.079889509074988
5542,21.973399036937707
5605,21.66150850775374
5668,21.980559174224187
5731,22.53780475946358
5794,22.034110367669868
5857,22.10147510538392
5920,21.94975949157754
5983,22.09643328844026
6046,22.088786286639305
6109,22.120669581635443
6172,22.0827364716596
6235,22.49978498800925
6298,22.126643366946876
6361,22.434116439827022
6424,22.290950226252814
6487,22.20905616895684
6550,22.04952216774573
6613,22.170220564884
6676,22.16329949532774
6739,22.173821018740515
6802,22.548869287267106
6865,22.07420864460295
6928,21.935890871893513
6991,21.989498131996918
7054,22.319894885257163
7117,22.129223691731173
7180,22.22819713920651
7243,22.16541164941134
7306,22.261844798321885
7369,22.252229365660913
7432,21.992340714987133
7495,21.97972849959149
7558,21.99633668168066
7621,21.976987722731298
7684,21.97875873275667
7747,21.960490283108577
7810,21.979230383969092
7873,21.989929353069982
7936,22.017983131080094
7999,22.001900204134987
8062,21.94676855478534
8125,22.027494581446078
8188,22.046605334563765
8251,22.002566174632776
8314,21.98735105170105
8377,22.02019188934727
8440,21.986867977805495
8503,21.933878570569405
8566,21.985326252373568
8629,22.049076044861444
8692,22.027920427801494
8755,22.01954330694797
8818,22.019064943847827
9029,0.0
9078,441796.8445729446
2,1, 7, 1, 0, 2,20.00,30.00,Saturday
7,23.02191318291443
8,88.5
9,2.5
10,340.0
11,0.0
12,0.0
5281,22.125972170401692
5416,21.868333276322787
5479,22.01544808854881
5542,21.911634681838603
5605,21.621242396688356
5668,21.91275353357711
5731,22.447709399841646
5794,21.955612417056873
5857,21.996183957389487
5920,21.879521869567185
5983,21.992828165798915
6046,21.986718322390733
6109,22.046187540762872
6172,22.01545481792939
6235,22.40124742006588
6298,22.02275302525619
6361,22.32277709433089
6424,22.18082344890683
6487,22.103840217394968
6550,21.98417197263369
6613,22.102956179697177
6676,22.056690651521013
6739,22.083429525661554
6802,22.413105250571313
6865,22.028672250512766
6928,21.87788037983557
6991,21.924467912062838
7054,22.330453553827684
7117,22.023243983513275
7180,22.121775901935784
7243,22.11519746892773
7306,22.155433151878373
7369,22.170023965063137
7432,21.938499691165877
7495,21.929953651895307
7558,21.945032898786028
7621,21.92490855763377
7684,21.926919185108364
7747,21.90878617678437
7810,21.929199636984603
7873,21.940534937697688
7936,21.969447214674496
7999,21.94963857449669
8062,21.89824555351196
8125,21.97590431268159
8188,21.994234770179784
8251,21.94701156138488
8314,21.932939733133015
8377,21.9663984210085
8440,21.931987461962997
8503,21.8830029669737
8566,21.93054128194217
8629,21.995045415343753
8692,21.974054153638193
8755,21.964826859008657
8818,21.964650900015847
9029,0.0
9078,2247.7785912395034
2,1, 7, 1, 0, 2,30.00,40.00,Saturday
7,22.798161425159936
8,89.33333333333334
9,2.333333333333333
10,353.3333333333333
11,0.0
12,0.0
5281,22.019548096589702
5416,21.810937243146572
5479,21.955503054859705
5542,21.854009205272757
5605,21.583101063170762
5668,21.849479837811064
5731,22.30380630976775
5794,21.88073617941396
5857,21.89295773588535
5920,21.81421620518477
5983,21.890938614511352
6046,21.88528027492095
6109,21.977874019826185
6172,21.953665051196523
6235,22.26033440724122
6298,21.92150073115287
6361,22.214646841577718
6424,22.072078884248423
6487,21.999515242409004
6550,21.924051134411297
6613,22.040645299937093
6676,21.953224823978857
6739,21.983804705604275
6802,22.276937421063575
6865,21.946152937089163
6928,21.819978477368686
6991,21.863655512000637
7054,22.28044090579164
7117,21.918363256676454
7180,22.018098525203623
7243,22.026148032902576
7306,22.05298180508963
7369,22.071917554245246
7432,21.88381051392679
7495,21.878092137676777
7558,21.892622558934697
7621,21.87107245408572
7684,21.87372443141544
7747,21.85568918985787
7810,21.877590775653434
7873,21.88995967952484
7936,21.919444273985494
7999,21.89638561250891
8062,21.847736878096434
8125,21.923097025919766
8188,21.9410452034736
8251,21.890279950002643
8314,21.877376702071604
8377,21.9108812438045
8440,21.876175094412023
8503,21.830789185371096
8566,21.87478906210146
8629,21.93943209521558
8692,21.919342342139217
8755,21.909183536856528
8818,21.90923314589667
9029,0.0
9078,0.0
2,1, 7, 1, 0, 2,40.00,50.00,Saturday
7,22.57440966740544
8,90.16666666666667
9,2.1666666666666665
10,6.666666666666686
11,0.0
12,0.0
5281,21.91325722070605
5416,21.755550458620878
5479,21.8985737509731
5542,21.799186497095405
5605,21.5457993728474
5668,21.789091331075042
5731,22.153798931337786
5794,21.79531733930477
5857,21.790894035778635
5920,21.752145041318755
5983,21.790130941504085
6046,21.783280130420724
6109,21.913390412986214
6172,21.895449019379416
6235,22.115503825790846
6298,21.821585989320347
6361,22.098694162424756
6424,21.964483652578853
6487,21.894675139590742
6550,21.867314360737627
6613,21.98170311139677
6676,21.851286652971105
6739,21.88083651462244
6802,22.13984825725339
6865,21.845336466832045
6928,21.76244615924017
6991,21.805426769437585
7054,22.16414548202835
7117,21.814494283064843
7180,21.915815976494844
7243,21.922670919856486
7306,21.952151069091506
7369,21.969422772818888
7432,21.828828608068537
7495,21.825187068788875
7558,21.839609716925583
7621,21.81662729154584
7684,21.81990052340755
7747,21.802001023482756
7810,21.825147652116748
7873,21.838345149161505
7936,21.868189195967734
7999,21.8425874706701
8062,21.795852131712127
8125,21.869516303479813
8188,21.887258021237635
8251,21.83353267473293
8314,21.82140627589756
8377,21.854669761967113
8440,21.820273537221244
8503,21.777772436003445
8566,21.81897894384009
8629,21.883042438274146
8692,21.864028470819314
8755,21.85306607584769
8818,21.85343670079774
9029,0.0
9078,0.0
2,1, 7, 1, 0, 2,50.00,60.00,Saturday
7,22.350657909650945
8,91.0
9,2.0
10,20.0
11,0.0
12,0.0
5281,21.805408380292086
5416,21.701097171620297
5479,21.84311010844488
5542,21.74574809607741
5605,21.508340385413963
5668,21.730057930002236
5731,22.010894472249788
5794,21.699859465554102
5857,21.688633086539586
5920,21.691648224434974
5983,21.68904837513801
6046,21.680087885285243
6109,21.850642127441333
6172,21.8389847999271
6235,21.976322126386368
6298,21.767912616436426
6361,21.970698728113994
6424,21.85678030501246
6487,21.78858799780278
6550,21.812190614486983
6613,21.92444583266432
6676,21.749134027119304
6739,21.77723309442135
6802,22.000233790132345
6865,21.73834328280127
6928,21.705256569139983
6991,21.748270427649242
7054,22.01826864299841
7117,21.71050704488845
7180,21.813228788746567
7243,21.81823054980198
7306,21.850909884528466
7369,21.867448750441678
7432,21.773288524333207
7495,21.771544726972735
7558,21.785851957151884
7621,21.76158079054525
7684,21.765397680034962
7747,21.747670673045985
7810,21.77192530277719
7873,21.78582641135996
7936,21.815838710868803
7999,21.78796573927648
8062,21.742901309933586
8125,21.815037009492585
8188,21.83264259500955
8251,21.776541220780363
8314,21.764853845569842
8377,21.79780792657692
8440,21.764025494651875
8503,21.724047456599827
8566,21.762865843960697
8629,21.825846929318878
8692,21.80788780153804
8755,21.796265936984085
8818,21.79696274840285
9029,30997.163160640794
9078,0.0
2,1, 7, 1, 0, 3, 0.00,10.00,Saturday
7,22.251808665406124
8,91.50000000000001
9,2.0
10,13.333333333333314
11,0.0
12,0.0
5281,21.71600092023612
5416,21.648968696280566
5479,21.789755056896027
5542,21.694400338363224
5605,21.471736566193886
5668,21.864468940461332
5731,21.897700478487057
5794,21.61031970134235
5857,21.596529401044037
5920,21.63379323845579
5983,21.71106702905532
6046,21.587014201714997
6109,21.790594754616603
6172,21.78479127926223
6235,21.86532732427806
6298,21.685745640627893
6361,21.860484483519738
6424,21.759539064832634
6487,21.69260350244812
6550,21.759244966579335
6613,21.86943824182783
6676,21.656932671263043
6739,21.684393386383114
6802,21.88425855695732
6865,21.641751963170133
6928,21.65036448419165
6991,21.69338889559464
7054,21.895478545719342
7117,21.61695222741505
7180,21.720619952001925
7243,21.726634566762424
7306,21.759258111327146
7369,21.776836950592294
7432,21.71984401145411
7495,21.719362870270007
7558,21.73353375461252
7621,21.708389389046186
7684,21.712506635775977
7747,21.695026846424803
7810,21.720077491949777
7873,21.734358144289207
7936,21.764347968645076
7999,21.735024364809846
8062,21.691171036552912
8125,21.762041343982045
8188,21.779513595010116
8251,21.721909391946514
8314,21.710369536901624
8377,21.7430081011423
8440,21.709880134572664
8503,21.67190005779861
8566,21.708907421445744
8629,21.770602704355596
8692,21.753443008499847
8755,21.741443815083183
8818,21.742575929164463
9029,247111.68495454337
9078,0.0
2,1, 7, 1, 0, 3,10.00,20.00,Saturday
7,22.15295942116131
8,92.0
9,2.0
10,6.666666666666686
11,0.0
12,0.0
5281,21.63205622514636
5416,21.59973764462735
5479,21.73875208419741
5542,21.645530586089738
5605,21.436201253655522
5668,21.860324217881473
5731,21.80974450150523
5794,21.532349185296937
5857,21.63703151858753
5920,21.57900018795087
5983,21.654702953045568
6046,21.50684066428845
6109,21.733600588590825
6172,21.733093983177834
6235,21.778793037339387
6298,21.589487402711374
6361,21.77279259390261
6424,21.67517331976499
6487,21.609567758136556
6550,21.70870024212735
6613,21.816861993389548
6676,21.576736463797385
6739,21.60416313135466
6802,21.79305215524925
6865,21.559200974221778
6928,21.5984972255025
6991,21.64125008499436
7054,21.803194266041515
7117,21.536183262435287
7180,21.640130231917965
7243,21.64856398427123
7306,21.679057132171575
7369,21.69821498020942
7432,21.669443819486116
7495,21.669473666741208
7558,21.683616330544112
7621,21.65787154481351
7684,21.66213516060679
7747,21.64499621307361
7810,21.67040898453258
7873,21.684823836049365
7936,21.714626449116672
7999,21.68477208210286
8062,21.64153130444794
8125,21.711533698602985
8188,21.728885293390768
8251,21.670554534054368
8314,21.659003306311735
8377,21.691291910477908
8440,21.65885560766849
8503,21.622259115861596
8566,21.658102347543398
8629,21.718440552043912
8692,21.701762505050084
8755,21.689630623579546
8818,21.691313323449897
9029,93643.36106662959
9078,0.0
2,1, 7, 1, 0, 3,20.00,30.00,Saturday
7,22.05411017691649
8,92.5
9,2.0
10,0.0
11,0.0
12,0.0
5281,21.55247671588662
5416,21.55284624533855
5479,21.689778160773994
5542,21.598614402380527
5605,21.401235374704118
5668,21.75004565737112
5731,21.732755725570453
5794,21.463125884578833
5857,21.588337679624846
5920,21.526790111299196
5983,21.542994633362543
6046,21.43588220727945
6109,21.679165384037773
6172,21.68350289481539
6235,21.702922848542087
6298,21.499955881492845
6361,21.697014793393425
6424,21.59998713226475
6487,21.535882608413935
6550,21.660170624674716
6613,21.766287477136835
6676,21.50469913942096
6739,21.53229862884058
6802,21.71439018425224
6865,21.486532929290448
6928,21.54924247905469
6991,21.59134838984609
7054,21.726415656968463
7117,21.46444879659886
7180,21.567946946802966
7243,21.625537883267853
7306,21.6065865418357
7369,21.62697630233047
7432,21.62159510131437
7495,21.621664186931415
7558,21.635902711234486
7621,21.609704711852565
7684,21.61408854524911
7747,21.597246834884324
7810,21.622714226582122
7873,21.637186872760033
7936,21.666712880828463
7999,21.636894407546087
8062,21.593821754235126
8125,21.66330972536712
8188,21.680572252054752
8251,21.621974972394
8314,21.610377142406158
8377,21.642291332018974
8440,21.610612009357652
8503,21.57490809676871
8566,21.610074721248495
8629,21.669068371044492
8692,21.65260255807358
8755,21.640460303762655
8818,21.642725343667347
9029,25455.835215985266
9078,0.0
2,1, 7, 1, 0, 3,30.00,40.00,Saturday
7,21.95526093267167
8,93.0
9,2.0
10,353.3333333333333
11,0.0
12,0.0
5281,21.477577321055122
5416,21.50764042849586
5479,21.642217806291075
5542,21.63666970687232
5605,21.366285377423477
5668,21.623251486572766
5731,21.65735471604423
5794,21.398137514879636
5857,21.476187844670363
5920,21.476458446447833
5983,21.429876539244482
6046,21.36963698330635
6109,21.626568278229275
6172,21.635484879721922
6235,21.62851652949968
6298,21.422917368252165
6361,21.62367730640517
6424,21.529551478400833
6487,21.509896278184073
6550,21.613132344991136
6613,21.71715714506954
6676,21.43656305673665
6739,21.464330939013823
6802,21.638476608460216
6865,21.418764106186348
6928,21.69260339339889
6991,21.542949881810472
7054,21.652267935535882
7117,21.397308223026833
7180,21.49976235747465
7243,21.566984155161016
7306,21.53777973901945
7369,21.558852158411153
7432,21.575538625707104
7495,21.575540029356254
7558,21.58987507977395
7621,21.563304801645465
7684,21.56785462709147
7747,21.551191990109153
7810,21.576603967478093
7873,21.591148281904772
7936,21.62037834494337
7999,21.59076778550919
8062,21.547685028790017
8125,21.61685950336607
8188,21.634057659777298
8251,21.575379865067383
8314,21.56376334432706
8377,21.59532016326543
8440,21.56445051353573
8503,21.529347554165458
8566,21.56408807372595
8629,21.62182047024429
8692,21.60538353847774
8755,21.59324320353607
8818,21.59604800642466
9029,412427.0706622688
9078,0.0
2,1, 7, 1, 0, 3,40.00,50.00,Saturday
7,21.856411688426853
8,93.5
9,2.0
10,346.6666666666667
11,0.0
12,0.0
5281,21.406606802694988
5416,21.463484129803646
5479,21.595717698593457
5542,21.616279137185803
5605,21.48718819839688
5668,21.77197460725053
5731,21.58087177947273
5794,21.573738941815133
5857,21.36069347619186
5920,21.447629302609485
5983,21.33786526871591
6046,21.485530678641965
6109,21.57530720417327
6172,21.5887026741046
6235,21.55296933350445
6298,21.64070397502603
6361,21.549296365603986
6424,21.461088806203996
6487,21.45292749246971
6550,21.567258267181877
6613,21.66910679488719
6676,21.369915759703108
6739,21.39779373111813
6802,21.561807639509077
6865,21.352893879940478
6928,21.70774831068334
6991,21.49551514879779
7054,21.57632350050036
7117,21.377183229878614
7180,21.54215208090122
7243,21.482735413465115
7306,21.470359015574125
7369,21.637177337487294
7432,21.530737930281553
7495,21.530755731582964
7558,21.545104694640486
7621,21.51820585388915
7684,21.52296348161132
7747,21.506386636651698
7810,21.531754042262946
7873,21.546414648240685
7936,21.57534570860204
7999,21.545896063311023
8062,21.5028162803405
8125,21.57174474298694
8188,21.588878805113982
8251,21.530162873989457
8314,21.532346682440224
8377,21.549813768472934
8440,21.519819494398835
8503,21.485136783393255
8566,21.5195228082583
8629,21.57612049692861
8692,21.559590919843544
8755,21.547419866141283
8818,21.726072616406473
9029,2129100.4996745517
9078,0.0
2,1, 7, 1, 0, 3,50.00,60.00,Saturday
7,21.75756244418203
8,94.0
9,2.0
10,340.0
11,0.0
12,0.0
5281,21.37865778609286
5416,21.447337402130422